<?xml version="1.0"?>
<VTKFile type="UnstructuredGrid" version="0.1" byte_order="LittleEndian">
  <UnstructuredGrid>
    <Piece NumberOfPoints="1185" NumberOfCells="2284">
      <Points>
        <DataArray type="Float64" NumberOfComponents="3" format="ascii">
          -3.3664841748e-12 -4.5518727676e-12 0 3.6279242443e-02 -4.5518623593e-12 0 -3.3664876442e-12 5.3587789560e-02 0 -3.3504830854e-12 1.0795972785e-01 0 3.4911570576e-02 5.3650843997e-02 0 4.4084828051e-02 4.1732937052e-02 0 8.2296593795e-02 3.8881436323e-02 0 8.3384006493e-02 -3.4668483362e-12 0 4.7979523928e-02 8.4314679029e-02 0 2.4928507651e-02 1.0873019307e-01 0 -3.0556286668e-12 1.6367448579e-01 0 4.4706976557e-02 1.3685747457e-01 0 2.9994836276e-02 1.6323240418e-01 0 6.6765429525e-02 8.8191891658e-02 0 9.1933067359e-02 6.7135574884e-02 0 9.0876900405e-02 4.7387152943e-02 0 1.2815796734e-01 3.3187104625e-02 0 1.2838565246e-01 -3.5215302896e-12 0 7.3883398497e-02 1.3399551154e-01 0 8.0600008693e-02 1.2071577190e-01 0 -3.3959918211e-12 2.1625047489e-01 0 4.5654896749e-02 1.8361667330e-01 0 2.9222058211e-02 2.1554569042e-01 0 8.5328707446e-02 1.5706138425e-01 0 7.0686406624e-02 1.8480633668e-01 0 1.1558186545e-01 1.1184551396e-01 0 1.1595907706e-01 8.3891212644e-02 0 1.4470480065e-01 6.8703836185e-02 0 1.4602046834e-01 4.9129392772e-02 0 1.7560295323e-01 3.4806572945e-02 0 1.7704057424e-01 -3.8550725112e-12 0 2.2212818279e-01 -3.5018134226e-12 0 1.2622272282e-01 1.2095480365e-01 0 -3.2336043565e-12 3.4995479552e-01 0 -3.1337779594e-12 2.9889551383e-01 0 -3.3959918211e-12 2.6790830581e-01 0 1.1906363498e-01 1.6093306517e-01 0 1.2839873106e-01 1.4982330493e-01 0 4.7484042196e-02 2.3544561858e-01 0 4.0214391803e-02 2.5990352070e-01 0 7.1296646290e-02 2.2999521356e-01 0 8.1662436652e-02 2.0125066712e-01 0 1.2393908704e-01 1.8798564629e-01 0 1.1204895355e-01 2.0269964775e-01 0 2.8071027495e-02 3.4961453809e-01 0 4.3074240571e-02 3.3252333176e-01 0 3.8796261902e-02 3.0841576496e-01 0 1.6519125505e-01 8.8560614866e-02 0 1.6166588334e-01 1.0922153758e-01 0 1.9508959307e-01 7.7364327317e-02 0 1.9916405658e-01 5.2056004707e-02 0 2.2399224466e-01 4.0500960678e-02 0 2.4014042897e-01 4.8394571016e-02 0 2.7018128986e-01 3.2252991453e-02 0 2.7143036004e-01 -3.5018099531e-12 0 3.1517616262e-01 -3.8202288555e-12 0 1.6551590450e-01 1.5551938335e-01 0 1.7764529586e-01 1.2926425425e-01 0 -3.5808647714e-12 3.9716964098e-01 0 4.5147785565e-02 3.8110288078e-01 0 3.9572258570e-02 3.9529731444e-01 0 5.9954801069e-02 2.8612693517e-01 0 1.7300678828e-01 1.7293985047e-01 0 1.5885815962e-01 1.9573645882e-01 0 9.2573748275e-02 2.6471816635e-01 0 9.3693042823e-02 2.5061253316e-01 0 1.2126966434e-01 2.3318607989e-01 0 1.6366306711e-01 2.1300038785e-01 0 1.3456549554e-01 2.3786746177e-01 0 7.8635719320e-02 3.6773110958e-01 0 7.3591693315e-02 3.4034295679e-01 0 9.1434454391e-02 3.2013948410e-01 0 2.1500924473e-01 9.7245867810e-02 0 2.0270754783e-01 1.2724155810e-01 0 3.6322284649e-01 -3.8034402017e-12 0 2.3962460904e-01 9.3725299790e-02 0 2.4838680373e-01 8.0694132804e-02 0 2.8312738255e-01 7.9097771761e-02 0 2.9254907329e-01 5.0224590023e-02 0 3.2080492748e-01 4.4135655454e-02 0 3.6060077423e-01 3.3295665072e-02 0 4.0490219332e-01 -3.8034402017e-12 0 4.0845514371e-01 3.0924745898e-02 0 2.0451235466e-01 1.7679762293e-01 0 2.1807871692e-01 1.4616570295e-01 0 2.1311644989e-01 1.9090728282e-01 0 -3.4141058036e-12 4.4158216210e-01 0 4.8627141162e-02 4.1286465144e-01 0 3.2067393014e-02 4.4224978684e-01 0 7.7395555628e-02 4.1952366904e-01 0 9.1687521946e-02 3.7596165648e-01 0 9.5168366738e-02 3.9597017808e-01 0 1.1687978687e-01 2.8633332995e-01 0 1.0087121095e-01 3.1895354934e-01 0 2.0485230116e-01 2.1634169176e-01 0 1.8091927230e-01 2.2310753777e-01 0 1.3210451121e-01 2.8364932240e-01 0 1.4488314852e-01 2.5968655990e-01 0 1.7873284790e-01 2.6145506229e-01 0 1.2123891807e-01 3.3569544767e-01 0 1.2113947432e-01 3.5899586589e-01 0 -3.2481274614e-12 4.8962433448e-01 0 2.5613628460e-01 1.2504675588e-01 0 2.4345706516e-01 1.4514187430e-01 0 3.8689203812e-01 5.0956657958e-02 0 3.7713810142e-01 5.0568792439e-02 0 2.8233640467e-01 1.2359625716e-01 0 3.1873586044e-01 9.8037642936e-02 0 2.9652376213e-01 9.8119101569e-02 0 3.3463429952e-01 7.9118399235e-02 0 3.5683748457e-01 8.0712031021e-02 0 4.0679069508e-01 7.8822004150e-02 0 4.5280992854e-01 -2.9245494915e-12 0 4.3502779682e-01 4.1498866882e-02 0 4.5421963928e-01 2.2485352751e-02 0 4.2710731905e-01 7.7003338359e-02 0 4.3859103768e-01 5.9310415749e-02 0 4.7788907127e-01 3.6113041400e-02 0 4.4302389988e-01 1.0201747722e-01 0 2.2286028078e-01 2.3579429996e-01 0 2.5791475810e-01 1.7076795182e-01 0 2.4744109743e-01 1.9111736827e-01 0 2.4602870270e-01 2.3332239936e-01 0 2.5721392750e-01 2.1172841145e-01 0 4.8319047062e-02 4.6502500823e-01 0 3.1808463608e-02 4.9027782436e-01 0 6.5344393695e-02 4.6487794817e-01 0 8.3730691041e-02 4.3574095939e-01 0 1.4101835651e-01 3.7252249241e-01 0 1.1034683995e-01 4.4437534513e-01 0 1.2985216720e-01 4.1018709134e-01 0 1.3006171709e-01 4.2775490114e-01 0 1.4179785942e-01 3.9798131257e-01 0 1.5489352027e-01 3.0727252986e-01 0 1.5217940678e-01 3.2227740720e-01 0 2.1177545145e-01 2.6349986046e-01 0 1.8244363669e-01 2.6526722843e-01 0 1.7868917424e-01 2.9515394340e-01 0 1.6969612923e-01 3.4338201020e-01 0 1.6691317009e-01 3.5886187167e-01 0 4.6305459810e-02 5.1488282732e-01 0 2.8002111787e-02 5.3923219519e-01 0 -3.2481274614e-12 5.3895882417e-01 0 -3.1663456579e-12 5.8846939281e-01 0 2.8718708714e-01 1.6864135732e-01 0 2.9783775674e-01 1.4825892780e-01 0 3.7209407548e-01 1.0341616324e-01 0 3.9315903221e-01 1.0225951265e-01 0 3.2473784379e-01 1.4545142071e-01 0 3.5857757092e-01 1.2622484776e-01 0 3.3567671231e-01 1.2880558448e-01 0 4.3974033371e-01 1.1622939457e-01 0 4.0875242508e-01 1.2244171604e-01 0 5.0181877001e-01 1.8917294305e-02 0 5.0258968200e-01 8.5969426022e-14 0 4.8001713064e-01 6.0651664875e-02 0 4.7414546436e-01 6.7282543258e-02 0 4.7396590795e-01 8.8537289142e-02 0 5.1114788309e-01 6.2274385939e-02 0 5.1947738736e-01 3.7362731237e-02 0 4.4996679058e-01 1.3045292191e-01 0 4.8827912438e-01 1.0270320864e-01 0 4.8637000190e-01 1.2466525201e-01 0 2.2513521877e-01 2.7941330668e-01 0 2.6100371315e-01 2.5590146784e-01 0 2.4927805863e-01 2.7689672019e-01 0 2.8951269820e-01 2.1341989707e-01 0 3.0013900634e-01 1.9225886215e-01 0 2.8406527708e-01 2.5527593023e-01 0 2.9791389598e-01 2.3163288320e-01 0 6.8221242008e-02 5.1674370413e-01 0 7.9558358383e-02 5.0755295495e-01 0 8.2523627038e-02 4.8331456962e-01 0 1.1457589285e-01 4.7279734013e-01 0 1.7726643326e-01 4.0582140694e-01 0 1.8783215106e-01 3.8052028957e-01 0 1.2355676475e-01 4.7889354044e-01 0 1.5607312490e-01 4.4522572011e-01 0 1.4868471859e-01 4.7278640454e-01 0 1.8122787335e-01 4.1513558075e-01 0 1.7193685777e-01 4.3928396866e-01 0 2.0172168401e-01 3.3199587753e-01 0 2.0634410775e-01 3.1398259920e-01 0 2.1553530453e-01 3.0865534334e-01 0 2.0692734967e-01 3.7567495317e-01 0 2.1458874518e-01 3.5134739748e-01 0 7.7386533027e-02 5.5376962497e-01 0 6.9935172810e-02 5.6336741028e-01 0 4.5091102329e-02 5.6499365603e-01 0 3.0365778884e-02 5.8886993725e-01 0 4.3469584559e-02 6.0928179291e-01 0 2.8003327804e-02 6.3853264385e-01 0 -3.5421734990e-12 6.4010679052e-01 0 -3.5421734990e-12 6.8948496542e-01 0 3.3160049804e-01 1.9058981087e-01 0 3.4034984296e-01 1.7646100323e-01 0 4.0133098829e-01 1.4769903508e-01 0 3.7756257659e-01 1.5223841342e-01 0 3.6712055709e-01 1.7243581077e-01 0 4.1651699566e-01 1.6225373740e-01 0 4.4736710595e-01 1.5284159140e-01 0 4.6000210613e-01 1.6586005986e-01 0 5.4688750671e-01 3.2731025277e-02 0 5.4885211511e-01 -2.7580507322e-12 0 5.8979100422e-01 -3.1894487051e-12 0 5.1881000170e-01 9.1459279768e-02 0 5.2208789676e-01 7.8242740984e-02 0 5.4888691256e-01 7.0046282828e-02 0 5.5191690463e-01 3.7845097754e-02 0 4.9178791207e-01 1.5496735874e-01 0 4.9460564448e-01 1.3554252153e-01 0 5.3334968235e-01 1.1321074711e-01 0 5.2813719121e-01 1.3011318911e-01 0 2.5096647610e-01 3.2183010181e-01 0 2.6578732392e-01 3.0257427619e-01 0 2.9743365281e-01 2.7648217468e-01 0 2.8203770607e-01 3.0167505926e-01 0 3.4214722353e-01 2.1901944778e-01 0 3.2561890905e-01 2.3613597301e-01 0 3.6147537561e-01 2.2259005710e-01 0 3.3298324346e-01 2.6481228386e-01 0 3.2188987715e-01 2.7755927065e-01 0 1.2324865757e-01 5.1551213892e-01 0 1.0869425868e-01 5.5041544290e-01 0 1.1576320876e-01 5.2035150040e-01 0 2.2502820633e-01 3.9158561275e-01 0 2.2452990592e-01 4.1433361699e-01 0 2.1779024895e-01 4.2095637279e-01 0 1.4957737033e-01 5.2171306378e-01 0 1.6665775731e-01 4.8892614512e-01 0 1.6441865052e-01 5.0966814955e-01 0 1.9315281278e-01 4.7744137325e-01 0 1.9590433886e-01 4.6047624875e-01 0 2.1774552598e-01 4.4808225761e-01 0 2.5396157974e-01 3.4628790785e-01 0 2.5192939591e-01 3.4871664978e-01 0 2.5128659147e-01 3.7838655377e-01 0 1.2151899894e-01 5.6531565212e-01 0 2.7892982561e-02 6.9100158286e-01 0 1.0779494735e-01 5.9636565216e-01 0 8.3481252261e-02 5.9714085601e-01 0 7.1788236971e-02 6.1135144278e-01 0 7.9297174405e-02 6.3922611261e-01 0 4.9553445962e-02 6.6066665435e-01 0 4.9503536090e-02 6.6925034257e-01 0 -3.4569916374e-12 7.4162327038e-01 0 4.3925740345e-02 7.2157737725e-01 0 3.1309654130e-02 7.4014063938e-01 0 -3.4909228286e-12 7.8766873102e-01 0 3.8761405574e-01 2.0293650336e-01 0 4.1504787425e-01 1.8763863000e-01 0 4.5973636156e-01 1.8651060348e-01 0 4.3607019140e-01 1.9973068721e-01 0 5.0539794966e-01 1.7240300395e-01 0 4.9982138442e-01 1.8943470460e-01 0 4.7582256302e-01 1.9805163218e-01 0 6.4012367895e-01 -2.7883147180e-12 0 5.9240204596e-01 2.8769724303e-02 0 5.8215735299e-01 3.9186260101e-02 0 6.1837747824e-01 3.6488538117e-02 0 6.3970999728e-01 1.3404183569e-02 0 5.6661733665e-01 1.0572603079e-01 0 5.6619051613e-01 8.2142841737e-02 0 5.8745016958e-01 6.8407695259e-02 0 5.3963063416e-01 1.4919939508e-01 0 5.2887000739e-01 1.6825431615e-01 0 5.7156419071e-01 1.1054799533e-01 0 5.5947803498e-01 1.4971264374e-01 0 5.7268141629e-01 1.3770567642e-01 0 3.0491129142e-0
[...]
      <PointData Scalars="u">
        <DataArray type="Float64" Name="Displacement" NumberOfComponents="3" format="ascii">
          1.2976424270e-05 -1.6717558421e-05 0 3.1473560241e-05 1.4093713352e-05 0 2.0374342715e-06 -2.3651530024e-05 0 2.0182729369e-06 -2.5159469289e-05 0 2.5492896985e-04 -3.6002657185e-04 0 2.9444274159e-04 -3.1911618425e-04 0 1.0054581733e-03 -4.5422523154e-04 0 2.7361456531e-05 1.1086291979e-05 0 7.1652894386e-04 -1.3526140879e-03 0 2.7037229434e-04 -1.1326662242e-03 0 9.6872309270e-06 -4.3434164524e-05 0 9.9622133535e-04 -3.2036499587e-03 0 5.0325468712e-04 -2.9724540112e-03 0 1.5199398978e-03 -2.0068929884e-03 0 2.1791508807e-03 -1.5849854185e-03 0 1.5322939689e-03 -7.6956901145e-04 0 2.0979818988e-03 -5.2211857421e-04 0 3.3370864624e-05 6.7601867946e-06 0 2.6137130833e-03 -4.9749675362e-03 0 2.8543096141e-03 -4.4287346632e-03 0 -1.5672137874e-06 -6.4720954770e-05 0 1.2076406602e-03 -5.6241040065e-03 0 5.8601323412e-04 -4.7289257461e-03 0 3.8777281896e-03 -7.6854302130e-03 0 2.9712148446e-03 -8.6028415039e-03 0 5.3963184508e-03 -5.2165488987e-03 0 4.2727855824e-03 -2.9860096031e-03 0 5.3501928150e-03 -2.4070616981e-03 0 3.9644996788e-03 -1.2552504138e-03 0 3.9364378784e-03 -6.9704647241e-04 0 5.0204376542e-05 3.0453230062e-06 0 6.5710946133e-05 1.0095603027e-05 0 6.8773110739e-03 -6.5216169350e-03 0 -2.4749354600e-06 -1.0675237735e-04 0 4.3636767784e-05 -1.2235112707e-04 0 -1.5574048088e-05 -9.8695037705e-05 0 7.5080374047e-03 -1.0635813432e-02 0 8.2956642297e-03 -9.9148089398e-03 0 1.4617344167e-03 -8.8952304450e-03 0 1.0306113890e-03 -8.8332911977e-03 0 3.2227185494e-03 -1.2656646177e-02 0 4.1192159539e-03 -1.1417981110e-02 0 8.8336900080e-03 -1.4498886753e-02 0 7.5730998207e-03 -1.5201021666e-02 0 3.6640877146e-04 -9.2788409955e-03 0 1.0535367219e-03 -1.3346539940e-02 0 9.3708840454e-04 -1.0851586060e-02 0 8.6659086616e-03 -4.3209965080e-03 0 9.9666048262e-03 -6.4443952962e-03 0 1.0310814495e-02 -3.6149105920e-03 0 7.3687194951e-03 -1.6584064784e-03 0 6.9979607175e-03 -1.0241878001e-03 0 9.3505430146e-03 -1.5126609185e-03 0 7.5002525718e-03 -7.3906720384e-04 0 9.3568599553e-05 5.4348869867e-06 0 9.4516434408e-05 1.0884229896e-05 0 1.3678993614e-02 -1.2629094100e-02 0 1.3557721099e-02 -9.3725800427e-03 0 3.5449999120e-05 -1.1941855829e-04 0 8.8319185993e-04 -1.6104901598e-02 0 6.4670932155e-04 -1.4651463067e-02 0 2.2509997644e-03 -1.5019668805e-02 0 1.5776106598e-02 -1.5765503302e-02 0 1.4421798000e-02 -1.8633584953e-02 0 5.4135316663e-03 -2.0017991382e-02 0 5.5948454271e-03 -1.8542276174e-02 0 9.1084003881e-03 -2.0549184839e-02 0 1.5661124012e-02 -2.1951642071e-02 0 1.1188151622e-02 -2.2988438097e-02 0 2.9511608895e-03 -2.6414179114e-02 0 2.8904219277e-03 -2.2823670658e-02 0 4.8630739709e-03 -2.5766815164e-02 0 1.4922019735e-02 -5.8296913601e-03 0 1.6899370552e-02 -9.6526361512e-03 0 1.2371587332e-04 5.3321123309e-06 0 1.7285651541e-02 -5.5871026283e-03 0 1.5957234084e-02 -4.1977490699e-03 0 1.9102777386e-02 -3.9593206081e-03 0 1.3052792025e-02 -1.5597197647e-03 0 1.3039692842e-02 -1.0948666179e-03 0 1.1305366076e-02 -6.5631268526e-04 0 1.3460539112e-04 -1.8838718869e-05 0 1.1783994162e-02 -3.9279594147e-04 0 2.1405001517e-02 -1.7708924683e-02 0 2.1136758417e-02 -1.2823172656e-02 0 2.3887000058e-02 -2.0662463764e-02 0 1.3183489932e-05 -1.4152044292e-04 0 8.0511659478e-04 -1.8531352551e-02 0 1.8403753556e-04 -1.2869099458e-02 0 1.8996513410e-03 -2.9214057007e-02 0 3.7782993653e-03 -3.1071529736e-02 0 3.4700969645e-03 -3.3685646519e-02 0 8.3024274419e-03 -2.7364831310e-02 0 5.8836776418e-03 -2.7975547419e-02 0 2.3430047759e-02 -2.5237842036e-02 0 1.9040121061e-02 -2.5054511406e-02 0 1.0647173665e-02 -2.9762931486e-02 0 1.2807133074e-02 -2.7973855617e-02 0 1.8769034987e-02 -3.2197441022e-02 0 7.9147633379e-03 -3.4825473842e-02 0 7.1279592831e-03 -3.7529031996e-02 0 -2.9931790034e-05 -1.4957799267e-04 0 2.4479307549e-02 -9.7763159444e-03 0 2.5273503763e-02 -1.2896655275e-02 0 1.8487559651e-02 -1.1298382134e-03 0 1.7876090989e-02 -1.1818165213e-03 0 2.8067902308e-02 -9.4078353245e-03 0 2.7341245114e-02 -5.5879066821e-03 0 2.4814342694e-02 -5.8679398676e-03 0 2.3911057872e-02 -3.4237129272e-03 0 2.6192322410e-02 -3.3061760343e-03 0 2.9068715996e-02 -2.1879671169e-03 0 1.0753326512e-04 2.1238913262e-05 0 1.6477329773e-02 -4.2420728523e-04 0 9.1808186451e-03 -7.9430147029e-06 0 2.9405974714e-02 -1.7369227207e-03 0 2.3428314868e-02 -8.4048681442e-04 0 1.4886980213e-02 -1.1864612672e-04 0 3.8530637626e-02 -2.3735717573e-03 0 2.7566540346e-02 -2.9924863798e-02 0 3.0655878293e-02 -1.7347136526e-02 0 3.0513800098e-02 -2.1191624172e-02 0 3.2294677519e-02 -2.9837653175e-02 0 3.3834333582e-02 -2.5303845936e-02 0 3.0195735070e-04 -1.9681172357e-02 0 2.1440587134e-05 -1.3282095719e-02 0 5.8302208578e-04 -2.6328903130e-02 0 1.7359794628e-03 -3.2133250484e-02 0 8.7919202204e-03 -4.3698813234e-02 0 2.5699023109e-03 -4.1248163687e-02 0 5.5521507698e-03 -4.4722802798e-02 0 4.6116038630e-03 -4.6112249463e-02 0 7.4019113395e-03 -4.6609896007e-02 0 1.3613212674e-02 -3.7173744229e-02 0 1.2647299992e-02 -3.9153364524e-02 0 2.5347236256e-02 -3.5078256164e-02 0 1.9492766661e-02 -3.3296525247e-02 0 1.8191141876e-02 -3.8448558879e-02 0 1.4333457638e-02 -4.5339854346e-02 0 1.2978739132e-02 -4.7149405716e-02 0 -5.5873404033e-05 -1.9092964337e-02 0 -5.6967448199e-05 -1.1458576631e-02 0 -1.9117958059e-06 -1.4394176556e-04 0 -3.0877095849e-05 -1.3024698045e-04 0 3.5726583090e-02 -1.6513337914e-02 0 3.4609856234e-02 -1.2817006352e-02 0 3.4173478100e-02 -4.8877913595e-03 0 3.5588429239e-02 -4.1124631963e-03 0 3.8267874521e-02 -1.1552987511e-02 0 3.8724348608e-02 -7.6916431415e-03 0 3.6408440202e-02 -8.8695268750e-03 0 4.2839207216e-02 -3.1627233671e-03 0 4.2581775721e-02 -5.0333052864e-03 0 7.8995009663e-03 -8.4982409973e-05 0 1.1739068007e-04 2.9340971220e-06 0 2.4655577766e-02 -2.5895925667e-04 0 2.7145126945e-02 -5.2027906441e-04 0 3.4926766645e-02 -8.7200269355e-04 0 2.5330048632e-02 1.0803075387e-04 0 1.5398548407e-02 2.0975399744e-04 0 4.7503828444e-02 -3.2992433124e-03 0 4.0005511779e-02 -5.5689590378e-04 0 4.6940452805e-02 -8.7470769169e-04 0 2.7621449346e-02 -3.8903408207e-02 0 3.5523635956e-02 -3.4457041159e-02 0 3.2660967722e-02 -3.8842670913e-02 0 4.0372049102e-02 -2.4912717537e-02 0 4.0703450078e-02 -2.0424584446e-02 0 4.0332828041e-02 -3.3595877085e-02 0 4.2821223039e-02 -2.8158608064e-02 0 -3.0407073672e-04 -2.7621788807e-02 0 -1.4786420982e-04 -3.1886113025e-02 0 4.7016702972e-04 -3.2933986388e-02 0 1.4523469179e-03 -4.3569237293e-02 0 1.0399841728e-02 -5.4682544840e-02 0 1.4081395304e-02 -5.3292863282e-02 0 1.2413204437e-03 -4.6483469088e-02 0 4.9321334162e-03 -5.3682284294e-02 0 2.2473955565e-03 -5.3170895251e-02 0 9.8908363370e-03 -5.6307504219e-02 0 6.5571189108e-03 -5.6670195135e-02 0 2.0325932920e-02 -4.7485084216e-02 0 2.2338366061e-02 -4.4571194690e-02 0 2.4382293306e-02 -4.4201949813e-02 0 1.7197094075e-02 -5.4887701540e-02 0 2.0844805521e-02 -5.1854205267e-02 0 -1.2136460722e-03 -3.0302725523e-02 0 -1.2594427847e-03 -2.7224972946e-02 0 -5.7351036124e-04 -1.7827589198e-02 0 -3.7452270573e-04 -1.1633469440e-02 0 -7.5036385183e-04 -1.5928206193e-02 0 -4.3616962199e-04 -9.5514273099e-03 0 -3.5582975689e-05 -1.2351203514e-04 0 -2.0518646918e-06 -1.0527083247e-04 0 4.6294369753e-02 -1.8424191751e-02 0 4.5845537811e-02 -1.5565495643e-02 0 4.8338280527e-02 -7.7684099893e-03 0 4.6740120955e-02 -9.7636840635e-03 0 4.9245195739e-02 -1.3107446491e-02 0 5.2910890575e-02 -7.9994046438e-03 0 5.3068083749e-02 -4.6472608938e-03 0 5.6619071176e-02 -4.1484041978e-03 0 1.3294601412e-02 1.6330978999e-04 0 1.1460713745e-04 -2.9099940938e-05 0 1.0336390963e-04 2.6786064660e-05 0 3.6071485966e-02 6.5899052027e-04 0 3.1285083456e-02 5.6149449122e-04 0 2.7681623960e-02 1.0071281900e-03 0 1.5289565341e-02 3.4694083540e-04 0 5.5050043312e-02 -7.0039508122e-04 0 5.0110354280e-02 -3.5710911858e-04 0 4.3038734712e-02 1.7649220654e-03 0 4.8210246435e-02 1.9029318900e-03 0 3.0083280237e-02 -4.7795339325e-02 0 3.4575429103e-02 -4.3873179379e-02 0 4.2422254599e-02 -3.7120004790e-02 0 3.7872593974e-02 -4.2991659717e-02 0 5.0538830876e-02 -2.2457940620e-02 0 4.8308767233e-02 -2.6964250333e-02 0 5.4022935871e-02 -2.1077862465e-02 0 4.9702422373e-02 -3.1576946702e-02 0 4.7111439080e-02 -3.5143350143e-02 0 -8.9563189074e-04 -4.6508556018e-02 0 -2.2320079328e-03 -4.0980548656e-02 0 -1.0769589528e-03 -4.4061242427e-02 0 1.7714623519e-02 -5.8407459445e-02 0 1.4347547312e-02 -6.1122390937e-02 0 1.2667889651e-02 -6.1335709060e-02 0 -1.8376185772e-03 -5.3537011276e-02 0 1.1303902776e-03 -5.7599028109e-02 0 -9.4422303630e-04 -5.7125796849e-02 0 3.0395415631e-03 -6.2087407847e-02 0 5.4141884000e-03 -6.1784794896e-02 0 8.5698929715e-03 -6.3546732652e-02 0 2.8096907353e-02 -5.2243888410e-02 0 2.7405075493e-02 -5.2697151345e-02 0 2.3226504571e-02 -5.7340803195e-02 0 -3.6388207756e-03 -4.4172641870e-02 0 -4.3098589792e-04 -7.8985068111e-03 0 -4.0969707709e-03 -3.8017112775e-02 0 -2.5041256750e-03 -3.0286810183e-02 0 -2.1397988147e-03 -2.5631725879e-02 0 -3.1168731294e-03 -2.6073689643e-02 0 -1.3492117524e-03 -1.5614732087e-02 0 -1.3881818985e-03 -1.5139056304e-02 0 3.7907124586e-06 -7.6780558297e-05 0 -1.2750878983e-03 -1.0687730424e-02 0 -6.5805917705e-04 -6.9242786236e-03 0 1.3358362646e-06 -6.3974938458e-05 0 5.6097024693e-02 -1.5304681941e-02 0 5.7238195433e-02 -1.0504122571e-02 0 6.0388954483e-02 -5.1015491381e-03 0 6.0745885946e-02 -8.9361780079e-03 0 5.8837202252e-02 6.2636909144e-04 0 6.1879091577e-02 -2.7165730360e-05 0 6.2736669550e-02 -3.3776351011e-03 0 1.0674268783e-04 7.2881230901e-06 0 1.0999003416e-02 3.2313198414e-04 0 1.5221325700e-02 4.4833028642e-04 0 1.3173202133e-02 5.0236017151e-04 0 4.6247205294e-03 6.6728232681e-05 0 3.9278954192e-02 2.8901749157e-03 0 3.1464761868e-02 1.8224326451e-03 0 2.5755516436e-02 1.5672214254e-03 0 5.2880383758e-02 3.3815485003e-03 0 5.7569945842e-02 3.0471545238e-03 0 4.0476746323e-02 3.3914001853e-03 0 5.1953270307e-02 5.0368972079e-03 0 4.8077754398e-02 5.2095379981e-03 0 3.9369010259e-02 -4.6036616055e-02 0 3.3223448200e-02 -5.1308263724e-02 0 4.6436129017e-02 -3.9162838178e-02 0 5.4800900052e-02 -2.7927158985e-02 0 5.6528301058e-02 -2.4982765398e-02 0 5.8940468033e-02 -2.2313396667e-02 0 6.1129582699e-02 -1.6545752086e-02 0 5.2821916983e-02 -3.2465637729e-02 0 4.9558620167e-02 -3.6472623034e-02 0 -5.1064689021e-03 -5.0478435935e-02 0 -4.5643372849e-03 -5.3794352589e-02 0 2.3178893099e-02 -5.9052452635e-02 0 1.6353626504e-02 -6.2614534524e-02 0 7.6000778259e-03 -6.5432080881e-02 0 1.3330568549e-02 -6.3997445419e-02 0 -6.6950648871e-03 -6.0189326923e-02 0 -3.5993807294e-03 -6.2501207481e-02 0 -2.8174534796e-03 -6.4230137869e-02 0 6.8143080904e-04 -6.4689646103e-02 0 3.6234549236e-03 -6.6284643261e-02 0 2.5618932022e-02 -5.7684564213e-02 0 2.9571964806e-02 -5.4936970152e-02 0 -8.1666046480e-03 -5.1396561065e-02 0 -6.2770133643e-03 -4.0835035127e-02 0 -8.5750670736e-03 -4.7075664517e-02 0 -3.8709887114e-03 -2.1864855323e-02 0 -3.1082943752e-03 -1.6791203037e-02 0 -5.2763833218e-03 -3.1591148221e-02 0 -6.2732963657e-03 -3.4901503215e-02 0 -5.3154317734e-03 -2.6009636124e-02 0 -1.4860331903e-03 -8.6915612726e-03 0 -8.0722234540e-04 -5.5908583527e-03 0 -4.6750382774e-03 -1.8132588833e-02 0 -3.0291538087e-03 -1.2290720997e-02 0 4.6219502320e-06 -4.9060595660e-05 0 -1.3352394104e-03 -5.8156885361e-03 0 -7.7002755267e-04 -3.8340956113e-03 0 1.9031135993e-06 -3.0318479567e-05 0 -4.8088120142e-06 -1.6595208770e-05 0 6.3423760630e-02 -1.0811241784e-02 0 6.2893415910e-02 -1.3843029394e-02 0 6.3658607949e-02 -1.4123881057e-02 0 6.1084504492e-02 5.9318262568e-03 0 6.5604194978e-02 -5.6790776968e-03 0 6.5504907722e-02 -4.3102336025e-03 0 6.3836817786e-02 5.2736261662e-03 0 6.6065172122e-02 6.2867845250e-04 0 6.4499611535e-02 2.6755839672e-03 0 1.0302350963e-04 3.5898170367e-05 0 8.3285429612e-05 2.0639889154e-05 0 1.0060720608e-02 7.2144570898e-04 0 1.2466341492e-02 9.3530597211e-04 0 2.7212980137e-02 2.3115576725e-03 0 1.9608541064e-02 1.9338064826e-03 0 1.9721402520e-02 1.3834009825e-03 0 3.1883404533e-02 3.5318679391e-03 0 3.7268130889e-02 4.3477850621e-03 0 5.8682099393e-02 8.8276863750e-03 0 5.7594576760e-02 8.7555124773e-03 0 5.3499377533e-02 1.0278873272e-02 0 4.3881045135e-02 7.4901353924e-03 0 4.8226633800e-02 7.6484760905e-03 0 5.8868563572e-05 3.1526693189e-06 0 3.6772967925e-05 1.9861129197e-06 0 3.4716164819e-02 -5.0000050387e-02 0 4.4624511234e-02 -4.0778511061e-02 0 3.9883504765e-02 -4.5978344912e-02 0 5.5634078193e-02 -2.7814615571e-02 0 5.9680647790e-02 -2.1772708186e-02 0 6.0114128541e-02 -2.0929241782e-02 0 4.5484461815e-02 -3.7746491602e-02 0 5.1682497363e-02 -2.9942901714e-02 0 -9.0933507839e-03 -6.0383708452e-02 0 -1.0813768597e-02 -5.6678983764e-02 0 1.3102996319e-02 -6.3535781275e-02 0 2.0745791461e-02 -5.8801224813e-02 0 7.5642713839e-03 -6.4036778716e-02 0 1.5795365115e-03 -6.6501514144e-02 0 -6.1338391737e-03 -6.5623755236e-02 0 -1.1200778521e-02 -6.2628110724e-02 0 -8.5160506513e-03 -6.5139747896e-02 0 -1.6778091951e-03 -6.6432212459e-02 0 3.1818938266e-02 -4.9952591204e-02 0 2.1477422317e-02 -5.6735177361e-02 0 1.8731682527e-02 -5.5927161596e-02 0 -1.4912396272e-02 -5.5625650044e-02 0 -1.1759148665e-02 -4.7669383077e-02 0 -1.5276025837e-02 -5.3214920690e-02 0 -1.0663878506e-02 -3.9812655826e-02 0 -1.2271061469e-02 -4.3560947352e-02 0 -8.4589625967e-03 -2.9759784114e-02 0 -6.8606946853e-03 -2.1479244979e-02 0 -8.9475334838e-03 -2.6971521548e-02 0 -1.1094158551e-02 -3.5698604923e-02 0 -4.7720468731e-03 -1.3011631787e-02 0 -3.5759963993e-03 -9.4351288177e-03 0 -7.3918715280e-03 -1.6279502494e-02 0 -8.8415033584e-03 -2.0247178606e-02 0 -1.1280840967e-03 -3.6248106067e-03 0 -6.5548951634e-04 -2.2997766727e-03 0 -4.3774946443e-03 -8.7354534926e-03 0 -3.0754651641e-03 -5.9047475913e-03 0 -8.3055328209e-04 -1.9399475408e-03 0 -3.6252992252e-04 -8.8089997677e-04 0 -4.7901099897e-04 -7.1678601305e-04 0 -1.7871525430e-04 -1.6854630938e-04 0 2.8315696346e-06 -1.2445671110e-05 0 6.2289912978e-06 -1.3705304428e-05 0 6.5819579141e-02 -6.7221588071e-03 0 6.5133200682e-02 -8.8501127569e-03 0 5.9290699345e-02 -1.6373555015e-02 0 6.2638756509e-02 -9.2770743230e-03 0 6.0748680346e-02 1.2310952250e-02 0 6.4598639175e-02 8.8815586276e-03 0 6.3465832322e-02 1.1641134759e-02 0 6.6471794652e-02 2.8050790807e-03 0 6.6198472327e-02 4.0605323943e-04 0 6.5873569400e-02 7.1272681839e-03 0 2.0270645579e-03 8.0582110311e-05 0 1.1987658925e-02 1.1582519312e-03 0 8.2236837740e-03 8.4138236380e-04 0 9.4446732935e-03 1.1959651348e-03 0 8.0405181820e-03 1.0753607178e-03 0 2.4636590701e-02 3.4615518348e-03 0 1.9284756543e-02 3.1006496271e-03 0 2.4424620375e-02 4.0567773303e-03 0 3.1478533979e-02 4.7517835378e-03 0 3.7137697359e-02 7.4259573204e-03 0 4.3026647289e-02 8.4959676652e-03 0 5.8545885213e-02 1.5848785238e-02 0 5.8891923121e-02 1.9951456781e-02 0 5.4864198597e-02 1.5546722806e-02 0 5.3110672224e-02 1.3351329515e-02 0 4.7099669461e-02 1.2649954708e-02 0 5.5885574515e-03 1.0797754142e-03 0 3.1173547960e-03 4.7235394431e-04 0 3.4279121895e-03 8.7840569830e-04 0 1.5163473727e-03 3.3546647681e-04 0 2.5902282685e-05 1.3207176917e-06 0 1.9338889561e-05 3.6062072103e-06 0 3.3464943884e-02 -4.4811922261e-02 0 3.9320639583e-02 -3.9044665636e-02 0 5.5945472429e-02 -1.8099279016e-02 0 5.1808307604e-02 -2.4338489981e-02 0 4.6379236329e-02 -2.5625259976e-02 0 3.9852737997e-02 -3.3395738666e-02 0 -1.7858689988e-02 -5.8440828815e-02 0 -1.6319018690e-02 -6.1020227572e-02 0 6.0644982658e-03 -6.2594431286e-02 0 9.2536489414e-03 -5.8591320995e-02 0 -3.1398500234e-03 -6.2662463067e-02 0 -5.5962375231e-03 -6.4726051151e-02 0 -1.2346912782e-02 -6.3655339354e-02 0 -1.8695599531e-02 -6.1504415205e-02 0 -1.3093374300e-02 -6.4063016509e-02 0 2.3721447944e-02 -4.4996890999e-02 0 2.1112559109e-02 -4.6976418972e-02 0 1.0443184455e-02 -4.7298793441e-02 0 5.6122733421e-03 -5.4673729880e-02 0 -2.3249969704e-02 -5.5681536867e-02 0 -2.3785322678e-02 -5.1227676792e-02 0 -2.0046979799e-02 -5.0011000511e-02 0 -1.8318923390e-02 -4.5351037466e-02 0 -1.9352795894e-02 -4.2012340121e-02 0 -1.6188445435e-02 -3.7307368406e-02 0 -1.5871310318e-02 -3.1465769352e-02 0 -1.3627560931e-02 -2.4618998809e-02 0 -1.5014367920e-02 -3.0382390156e-02 0 -1.5416127705e-02 -2.2710089318e-02 0 -1.0050241106e-02 -1.5037949109e-02 0 -7.7325330254e-03 -1.1149179643e-02 0 -1.1798226183e-02 -1.6236453094e-02 0 -3.6106215808e-03 -4.9635056065e-03 0 -2.3391024389e-03 -2.9863622316e-03 0 -8.0905184198e-03 -8.8995643691e-03 0 -5.8961182912e-03 -6.1746479675e-03 0 -2.2803812857e-03 -2.1669737569e-03 0 -1.3444152412e-03 -1.0894138087e-03 0 -1.0985696992e-03 -5.4540531685e-04 0 -1.8581030921e-04 -7.6322962352e-05 0 -1.0739464298e-05 -5.0506211614e-06 0 5.3851795764e-02 -9.8636068965e-03 0 6.3967290456e-02 1.7906952956e-03 0 6.1982402309e-02 -4.2427610717e-03 0 5.7193940253e-02 -3.9381114282e-03 0 6.2156062521e-02 1.7470721117e-02 0 6.4034323315e-02 1.1909903235e-02 0 6.3345510224e-02 1.2030133675e-02 0 6.2869499289e-02 6.1547881211e-03 0 6.9240620563e-03 1.6534145842e-03 0 1.0804985175e-02 2.6324616762e-03 0 1.7838291457e-02 4.1244764393e-03 0 1.9982909253e-02 4.4598509511e-03 0 1.7740143313e-02 5.0686063896e-03 0 1.3180049968e-02 3.8460929100e-03 0 2.8092989035e-02 8.4481334015e-03 0 3.5750245883e-02 9.0855839117e-03 0 3.1046060550e-02 7.6801676293e-03 0 3.9530871121e-02 1.2449115573e-02 0 4.5428773576e-02 1.4210472011e-02 0 5.9321275374e-02 2.2998124217e-02 0 5.6519917841e-02 2.7210352106e-02 0 5.6238867675e-02 2.3847936052e-02 0 5.5698598190e-02 2.5671664708e-02 0 5.1741317776e-02 2.1993938304e-02 0 5.1511630953e-02 2.0915215558e-02 0 4.7098527209e-02 1.8495510171e-02 0 8.6358389345e-03 3.4606415834e-03 0 6.2748901944e-03 3.0083227225e-03 0 5.2794588139e-03 2.3845758189e-03 0 1.7808575011e-03 7.7624910915e-04 0 3.4888293861e-03 2.1324967886e-03 0 1.2968750162e-03 6.5520569014e-04 0 7.8617282418e-04 3.2712529751e-04 0 2.1379717820e-04 1.9175969339e-04 0 2.0214137358e-05 -5.5133462669e-06 0 1.2886042454e-05 1.1662561725e-05 0 2.6337010214e-02 -3.4990986580e-02 0 3.1359028745e-02 -3.1719950278e-02 0 4.6966912400e-02 -1.1029914500e-02 0 4.3708500394e-02 -1.7664320002e-02 0 3.4559440140e-02 -2.0852809177e-02 0 4.4348426158e-02 -5.1500497520e-03 0 -2.6871986769e-02 -5.5683849728e-02 0 -2.2423982815e-02 -5.9630446092e-02 0 -3.9975456752e-03 -5.4891889514e-02 0 -6.6354822661e-03 -5.8889078597e-02 0 -1.5784207525e-02 -5.7820426281e-02 0 -1.6971004073e-02 -6.0281701190e-02 0 -2.4971472896e-02 -5.7458241748e-02 0 1.7486583148e-02 -3.1589127931e-02 0 7.5113737810e-03 -4.2916480351e-02 0 1.0851341254e-02 -3.4664713527e-02 0 -7.6422611224e-03 -4.9600665425e-02 0 -4.2896610456e-03 -4.3495787263e-02 0 -3.0444447510e-02 -5.3285923547e-02 0 -2.3998158491e-02 -4.1310831686e-02 0 -2.7793022221e-02 -4.8210663510e-02 0 -3.3366465277e-02 -4.8549449585e-02 0 -2.8032635294e-02 -4.4273191696e-02 0 -3.6198717457e-02 -4.6136584035e-02 0 -2.2559133493e-02 -3.2782775746e-02 0 -2.4600684554e-02 -3.5193986736e-02 0 -2.2549430527e-02 -2.6928973981e-02 0 -1.9973519120e-02 -2.4173807119e-02 0 -1.4949752353e-02 -1.4984349766e-02 0 -1.9611900901e-02 -1.8066948347e-02 0 -1.2455328369e-02 -1.0128308205e-02 0 -4.0957541865e-03 -2.5199338338e-03 0 -5.9011732496e-03 -4.0381455525e-03 0 -8.1153394571e-03 -4.6031703533e-03 0 -2.9953397739e-03 -1.1181701632e-03 0 -1.2429229876e-03 -3.9100169007e-04 0 -6.3803407550e-07 -4.5038429332e-05 0 5.5027768789e-02 4.5074293399e-03 0 4.7819904803e-02 5.7755252471e-03 0 5.7454051170e-02 8.8393941166e-03 0 5.7807795297e-02 2.2731480174e-02 0 5.5660090198e-02 1.6278791042e-02 0 5.8988012105e-02 1.9027185164e-02 0 4.5699388930e-02 9.0588544098e-03 0 1.1937004649e-02 5.7049858827e-03 0 1.4334264496e-02 6.1938350800e-03 0 2.8755526628e-02 9.8499948476e-03 0 2.2548374788e-02 9.2512179022e-03 0 2.4222245445e-02 1.0092560392e-02 0 1.8357723708e-02 9.0473293729e-03 0 3.5453744165e-02 1.499328